# vtk DataFile Version 3.0
LAPLACIEN  2D
ASCII
DATASET UNSTRUCTURED_GRID
 POINTS         481  float
   6.2500000000000000E-002  0.87500000000000000        0.0000000000000000     
  0.12500000000000000       0.87500000000000000        0.0000000000000000     
  0.12500000000000000       0.93750000000000000        0.0000000000000000     
   3.7499999999999999E-002  0.91249999999999998        0.0000000000000000     
   8.1250000000000003E-002  0.91874999999999996        0.0000000000000000     
   8.7499999999999994E-002  0.96250000000000002        0.0000000000000000     
   4.3749999999999997E-002  0.95625000000000004        0.0000000000000000     
  0.18750000000000000       0.87500000000000000        0.0000000000000000     
  0.25000000000000000       0.87500000000000000        0.0000000000000000     
  0.25000000000000000       0.93750000000000000        0.0000000000000000     
  0.16250000000000001       0.91249999999999998        0.0000000000000000     
  0.20624999999999999       0.91874999999999996        0.0000000000000000     
  0.21249999999999999       0.96250000000000002        0.0000000000000000     
  0.16875000000000001       0.95625000000000004        0.0000000000000000     
   6.2500000000000000E-002  0.75000000000000000        0.0000000000000000     
  0.12500000000000000       0.75000000000000000        0.0000000000000000     
  0.12500000000000000       0.81250000000000000        0.0000000000000000     
   3.7499999999999999E-002  0.78749999999999998        0.0000000000000000     
   8.1250000000000003E-002  0.79374999999999996        0.0000000000000000     
   8.7499999999999994E-002  0.83750000000000002        0.0000000000000000     
   4.3749999999999997E-002  0.83125000000000004        0.0000000000000000     
  0.18750000000000000       0.75000000000000000        0.0000000000000000     
  0.25000000000000000       0.75000000000000000        0.0000000000000000     
  0.25000000000000000       0.81250000000000000        0.0000000000000000     
  0.16250000000000001       0.78749999999999998        0.0000000000000000     
  0.20624999999999999       0.79374999999999996        0.0000000000000000     
  0.21249999999999999       0.83750000000000002        0.0000000000000000     
  0.16875000000000001       0.83125000000000004        0.0000000000000000     
  0.31250000000000000       0.87500000000000000        0.0000000000000000     
  0.37500000000000000       0.87500000000000000        0.0000000000000000     
  0.37500000000000000       0.93750000000000000        0.0000000000000000     
  0.28749999999999998       0.91249999999999998        0.0000000000000000     
  0.33124999999999999       0.91874999999999996        0.0000000000000000     
  0.33750000000000002       0.96250000000000002        0.0000000000000000     
  0.29375000000000001       0.95625000000000004        0.0000000000000000     
  0.43750000000000000       0.87500000000000000        0.0000000000000000     
  0.50000000000000000       0.87500000000000000        0.0000000000000000     
  0.50000000000000000       0.93750000000000000        0.0000000000000000     
  0.41249999999999998       0.91249999999999998        0.0000000000000000     
  0.45624999999999999       0.91874999999999996        0.0000000000000000     
  0.46250000000000002       0.96250000000000002        0.0000000000000000     
  0.41875000000000001       0.95625000000000004        0.0000000000000000     
  0.31250000000000000       0.75000000000000000        0.0000000000000000     
  0.37500000000000000       0.75000000000000000        0.0000000000000000     
  0.37500000000000000       0.81250000000000000        0.0000000000000000     
  0.28749999999999998       0.78749999999999998        0.0000000000000000     
  0.33124999999999999       0.79374999999999996        0.0000000000000000     
  0.33750000000000002       0.83750000000000002        0.0000000000000000     
  0.29375000000000001       0.83125000000000004        0.0000000000000000     
  0.43750000000000000       0.75000000000000000        0.0000000000000000     
  0.50000000000000000       0.75000000000000000        0.0000000000000000     
  0.50000000000000000       0.81250000000000000        0.0000000000000000     
  0.41249999999999998       0.78749999999999998        0.0000000000000000     
  0.45624999999999999       0.79374999999999996        0.0000000000000000     
  0.46250000000000002       0.83750000000000002        0.0000000000000000     
  0.41875000000000001       0.83125000000000004        0.0000000000000000     
   6.2500000000000000E-002  0.62500000000000000        0.0000000000000000     
  0.12500000000000000       0.62500000000000000        0.0000000000000000     
  0.12500000000000000       0.68750000000000000        0.0000000000000000     
   3.7499999999999999E-002  0.66249999999999998        0.0000000000000000     
   8.1250000000000003E-002  0.66874999999999996        0.0000000000000000     
   8.7499999999999994E-002  0.71250000000000002        0.0000000000000000     
   4.3749999999999997E-002  0.70625000000000004        0.0000000000000000     
  0.18750000000000000       0.62500000000000000        0.0000000000000000     
  0.25000000000000000       0.62500000000000000        0.0000000000000000     
  0.25000000000000000       0.68750000000000000        0.0000000000000000     
  0.16250000000000001       0.66249999999999998        0.0000000000000000     
  0.20624999999999999       0.66874999999999996        0.0000000000000000     
  0.21249999999999999       0.71250000000000002        0.0000000000000000     
  0.16875000000000001       0.70625000000000004        0.0000000000000000     
   6.2500000000000000E-002  0.50000000000000000        0.0000000000000000     
  0.12500000000000000       0.50000000000000000        0.0000000000000000     
  0.12500000000000000       0.56250000000000000        0.0000000000000000     
   3.7499999999999999E-002  0.53749999999999998        0.0000000000000000     
   8.1250000000000003E-002  0.54374999999999996        0.0000000000000000     
   8.7499999999999994E-002  0.58750000000000002        0.0000000000000000     
   4.3749999999999997E-002  0.58125000000000004        0.0000000000000000     
  0.18750000000000000       0.50000000000000000        0.0000000000000000     
  0.25000000000000000       0.50000000000000000        0.0000000000000000     
  0.25000000000000000       0.56250000000000000        0.0000000000000000     
  0.16250000000000001       0.53749999999999998        0.0000000000000000     
  0.20624999999999999       0.54374999999999996        0.0000000000000000     
  0.21249999999999999       0.58750000000000002        0.0000000000000000     
  0.16875000000000001       0.58125000000000004        0.0000000000000000     
  0.31250000000000000       0.62500000000000000        0.0000000000000000     
  0.37500000000000000       0.62500000000000000        0.0000000000000000     
  0.37500000000000000       0.68750000000000000        0.0000000000000000     
  0.28749999999999998       0.66249999999999998        0.0000000000000000     
  0.33124999999999999       0.66874999999999996        0.0000000000000000     
  0.33750000000000002       0.71250000000000002        0.0000000000000000     
  0.29375000000000001       0.70625000000000004        0.0000000000000000     
  0.43750000000000000       0.62500000000000000        0.0000000000000000     
  0.50000000000000000       0.62500000000000000        0.0000000000000000     
  0.50000000000000000       0.68750000000000000        0.0000000000000000     
  0.41249999999999998       0.66249999999999998        0.0000000000000000     
  0.45624999999999999       0.66874999999999996        0.0000000000000000     
  0.46250000000000002       0.71250000000000002        0.0000000000000000     
  0.41875000000000001       0.70625000000000004        0.0000000000000000     
  0.31250000000000000       0.50000000000000000        0.0000000000000000     
  0.37500000000000000       0.50000000000000000        0.0000000000000000     
  0.37500000000000000       0.56250000000000000        0.0000000000000000     
  0.28749999999999998       0.53749999999999998        0.0000000000000000     
  0.33124999999999999       0.54374999999999996        0.0000000000000000     
  0.33750000000000002       0.58750000000000002        0.0000000000000000     
  0.29375000000000001       0.58125000000000004        0.0000000000000000     
  0.43750000000000000       0.50000000000000000        0.0000000000000000     
  0.50000000000000000       0.50000000000000000        0.0000000000000000     
  0.50000000000000000       0.56250000000000000        0.0000000000000000     
  0.41249999999999998       0.53749999999999998        0.0000000000000000     
  0.45624999999999999       0.54374999999999996        0.0000000000000000     
  0.46250000000000002       0.58750000000000002        0.0000000000000000     
  0.41875000000000001       0.58125000000000004        0.0000000000000000     
  0.56250000000000000       0.87500000000000000        0.0000000000000000     
  0.62500000000000000       0.87500000000000000        0.0000000000000000     
  0.62500000000000000       0.93750000000000000        0.0000000000000000     
  0.53749999999999998       0.91249999999999998        0.0000000000000000     
  0.58125000000000004       0.91874999999999996        0.0000000000000000     
  0.58750000000000002       0.96250000000000002        0.0000000000000000     
  0.54374999999999996       0.95625000000000004        0.0000000000000000     
  0.68750000000000000       0.87500000000000000        0.0000000000000000     
  0.75000000000000000       0.87500000000000000        0.0000000000000000     
  0.75000000000000000       0.93750000000000000        0.0000000000000000     
  0.66249999999999998       0.91249999999999998        0.0000000000000000     
  0.70625000000000004       0.91874999999999996        0.0000000000000000     
  0.71250000000000002       0.96250000000000002        0.0000000000000000     
[...]
 CELL_DATA         896
 SCALARS U float
 LOOKUP_TABLE default
   -0.77576782216663831004E+00
   -0.80861653303536729087E+00
   -0.77889099859817256810E+00
   -0.80860900227652798833E+00
   -0.87127477111526063780E+00
   -0.92423217788705613884E+00
   -0.97869941335201882104E+00
   -0.94377914330669521181E+00
   -0.97412675702315676407E+00
   -0.93837324274501632271E+00
   -0.87632955287687430701E+00
   -0.82130058663651428486E+00
   -0.86544372242239298032E+00
   -0.88455627773795242330E+00
   -0.75222688103840984475E+00
   -0.77755712607805793635E+00
   -0.73976694017403521464E+00
   -0.76481048191557066129E+00
   -0.83094479238205876115E+00
   -0.87890030433897614603E+00
   -0.93963074408323199460E+00
   -0.91221754403210519868E+00
   -0.95064285173954421460E+00
   -0.91947360263896360522E+00
   -0.85399391720002326700E+00
   -0.80397667435646791301E+00
   -0.83548061754898761411E+00
   -0.85187607229026429678E+00
   -0.57109969571980156999E+00
   -0.59894651174315216569E+00
   -0.57268951892428665573E+00
   -0.59773306068240605882E+00
   -0.65233417808073235200E+00
   -0.69777311906357808446E+00
   -0.74602332591698072850E+00
   -0.71611477900885711634E+00
   -0.74302639690790062144E+00
   -0.71185714796391952319E+00
   -0.65789115213633952983E+00
   -0.61036925590630664029E+00
   -0.64812392786123551591E+00
   -0.66451938261559562182E+00
   -0.54759286744753143950E+00
   -0.56790203113688253467E+00
   -0.53357042151870415214E+00
   -0.55392957929803421369E+00
   -0.61198927301656558253E+00
   -0.65240713266541905391E+00
   -0.70689809104284384578E+00
   -0.68451599252867112444E+00
   -0.71949197725020164196E+00
   -0.69300802224830915232E+00
   -0.63559270367087006282E+00
   -0.59310190922180616724E+00
   -0.61816847836304611441E+00
   -0.63183152180869472936E+00
   -0.69750215314557806323E+00
   -0.71530267448649720308E+00
   -0.66943220415005155743E+00
   -0.68979375527553288272E+00
   -0.75939644887733004364E+00
   -0.80233206817688340617E+00
   -0.86931679655713689492E+00
   -0.84943788879527271085E+00
   -0.89594985109429958747E+00
   -0.86945771560075446605E+00
   -0.80050403347610876725E+00
   -0.75549821078492895854E+00
   -0.77432748377833493514E+00
   -0.78799303902617934270E+00
   -0.61155068417024593952E+00
   -0.62181517719283263546E+00
   -0.56786237735180011832E+00
   -0.58353882503067344700E+00
   -0.65660711121639236953E+00
   -0.69451800835216448426E+00
   -0.76775386034520476386E+00
   -0.75541356076718291224E+00
   -0.81001061805338991917E+00
   -0.78820276528283739204E+00
   -0.71578079683984840997E+00
   -0.67579633518802673109E+00
   -0.68193774886710234462E+00
   -0.69287057414799679833E+00
   -0.49286284222369181052E+00
   -0.50563736336250153514E+00
   -0.46322748547852077294E+00
   -0.47890284715739961374E+00
   -0.54042598911603467737E+00
   -0.57582213192978703997E+00
   -0.63656110348312922032E+00
   -0.62171133225778674181E+00
   -0.66476481375761331538E+00
   -0.64296097004036034672E+00
   -0.58208408709922632163E+00
   -0.54461558395389031428E+00
   -0.55699892864764877221E+00
   -0.56793045725358770603E+00
   -0.40690495763237932714E+00
   -0.41214350703056157332E+00
   -0.36165339640487664807E+00
   -0.37264397600261689458E+00
   -0.43763087191899241457E+00
   -0.46800294984452717184E+00
   -0.53499037408323335541E+00
   -0.52767707708235611630E+00
   -0.57881176254396005110E+00
   -0.56169139875609364054E+00
   -0.49735012629868791123E+00
   -0.46490444198168201506E+00
   -0.46460089515938085558E+00
   -0.47279989600095867486E+00
   -0.39766793186898991008E+00
   -0.42049485523038532264E+00
   -0.39770624553424865910E+00
   -0.41806779667029464465E+00
   -0.46458862964427372066E+00
   -0.50249784693202081964E+00
   -0.54450178945306804135E+00
   -0.51960466272596328441E+00
   -0.54304228395333897783E+00
   -0.51655014861962589290E+00
   -0.47067080738290961728E+00
   -0.43068320343235849679E+00
   -0.46200696111349665030E+00
   -0.47567251636917273760E+00
   -0.37417786811425735038E+00
   -0.38946531500473891008E+00
   -0.35859715365382482943E+00
   -0.37427251532496902398E+00
   -0.42425394074310213144E+00
   -0.45713715782006614230E+00
   -0.50538441626019536823E+00
   -0.48802460907880079732E+00
   -0.51953902946430996490E+00
   -0.49773518572871294774E+00
   -0.44839736390988016446E+00
   -0.41343889673131895002E+00
   -0.43206954288218335503E+00
   -0.44300107148761519449E+00
   -0.25548199170532198687E+00
   -0.27328419294393296868E+00
   -0.25396117580578575490E+00
   -0.26963762346855435492E+00
   -0.30807612694080216409E+00
   -0.33844931588380472443E+00
   -0.37420366502652585572E+00
   -0.35432789934943931254E+00
   -0.37429723425636152179E+00
   -0.35248938165779852838E+00
   -0.31469513542097571346E+00
   -0.28224613964543476818E+00
   -0.30712942603024090404E+00
   -0.31806225130518595012E+00
   -0.23199705020247221587E+00
   -0.24226043217264109364E+00
   -0.21485602477630441620E+00
   -0.22584660436192369182E+00
   -0.26774779706614715291E+00
   -0.29309504238589023650E+00
   -0.33509555822556880145E+00
   -0.32275856984850964659E+00
   -0.35080860069011288171E+00
   -0.33368823689822590950E+00
   -0.29243161904172765286E+00
   -0.26500962612556139275E+00
   -0.27720010411491941005E+00
   -0.28539910496449788502E+00
   -0.31945199330802470650E+00
   -0.32720237774355259708E+00
   -0.28825483030575366206E+00
   -0.29924517048455234747E+00
   -0.35268892636108689631E+00
   -0.38054800671273686374E+00
   -0.43504131085800507028E+00
   -0.42521703977278940689E+00
   -0.46480955720818378785E+00
   -0.44769044222670978384E+00
   -0.39489165635073986138E+00
   -0.36495868933184127947E+00
   -0.37090067471206200622E+00
   -0.37909932540499480247E+00
   -0.23349343079262183109E+00
   -0.23370720811020412322E+00
   -0.18667981727219032373E+00
   -0.19298521839437093872E+00
   -0.24989189100362105278E+00
   -0.27272667092146085643E+00
   -0.33346694526272191439E+00
   -0.33117903837025536307E+00
   -0.37885135212422227369E+00
   -0.36641670336941484232E+00
   -0.31015518658736179747E+00
   -0.28524653059780896713E+00
   -0.27850040485525295875E+00
   -0.28396625718181056630E+00
   -0.17727332906156040293E+00
   -0.17999941304188474267E+00
   -0.14451478235120099325E+00
   -0.15082018347699802097E+00
   -0.19618409594148880637E+00
   -0.21650656920430855212E+00
   -0.26475346958609730086E+00
   -0.25995350951721801769E+00
   -0.29608329604015526382E+00
   -0.28364864727951244472E+00
   -0.23892965771901408800E+00
   -0.21653305489834037689E+00
   -0.21603374289171892175E+00
   -0.22149959522205373008E+00
   -0.91315102492271690848E-01
   -0.86504383776405874285E-01
   -0.42939805997926169812E-01
   -0.44560194701709764098E-01
   -0.93386920241364398954E-01
   -0.10868489745646912892E+00
   -0.16317844792653501962E+00
   -0.16591518413083114480E+00
   -0.21012480248907797198E+00
   -0.20237519689358837716E+00
   -0.15419351192820221486E+00
   -0.13682155220687317043E+00
   -0.12363354124250763855E+00
   -0.12636645878773408724E+00
   -0.49436077962002261676E+00
   -0.49708685113856176940E+00
   -0.43505217011138530570E+00
   -0.44604201453858033366E+00
   -0.52257333109436265861E+00
   -0.55545679567146788447E+00
   -0.63494151379053087592E+00
   -0.63014184151797569822E+00
   -0.69282281192787331658E+00
   -0.67570161429018671395E+00
   -0.59981452216852637616E+00
   -0.56485520962439028647E+00
   -0.55830467399012873031E+00
   -0.56650359898026725336E+00
   -0.34593091206201975751E+00
   -0.34111765834747775905E+00
   -0.27100307880856705500E+00
   -0.27730561439215156705E+00
   -0.35729626741736431050E+00
   -0.38514950440080436556E+00
   -0.47087988439083988679E+00
   -0.47362274185320252240E+00
   -0.54438617995302540642E+00
   -0.53195331539962575906E+00
   -0.45260400565809510987E+00
   -0.42267219390677029933E+00
   -0.40342806401118153081E+00
   -0.40889227263858346495E+00
   -0.28971366350147564894E+00
   -0.28741512465149421374E+00
   -0.22884464976127236180E+00
   -0.23514981345497845688E+00
   -0.30359939541139774333E+00
   -0.32894589763821102668E+00
   -0.40218049605117206502E+00
   -0.40240543341767887053E+00
   -0.46162153482649126435E+00
   -0.44918657255108018767E+00
   -0.38138157956604584742E+00
   -0.35396034673516452163E+00
   -0.34096748721762332179E+00
   -0.34643327930626544031E+00
   -0.14128785268087115656E+00
   -0.13145217454471902485E+00
   -0.64802402822055918397E-01
   -0.66422441632013051738E-01
   -0.13833327103222475829E+00
   -0.15865394639491492423E+00
   -0.23813303262317891962E+00
   -0.24589644512229716367E+00
   -0.31319254838669136065E+00
   -0.30544388807926337037E+00
   -0.23417675673281579396E+00
   -0.21178094986899903551E+00
   -0.18609845456158538579E+00
   -0.18883086915825045282E+00
   -0.16626643464599089040E+00
   -0.15391522396927573291E+00
   -0.75726783520538687444E-01
   -0.77344090918327640383E-01
   -0.16078531634352971613E+00
   -0.18360402554890267734E+00
   -0.27557016806200540504E+00
   -0.28585899923542379408E+00
   -0.36470154305780411175E+00
   -0.35695933736521806567E+00
   -0.27415280529717273028E+00
   -0.24925059392457890595E+00
   -0.21731367831012604608E+00
   -0.22004249412197596225E+00
    0.44608884257836357856E-01
    0.64483755335094955496E-01
    0.15073002260165282995E+00
    0.15377550246438309589E+00
    0.66875158536775836104E-01
    0.49032123603847628523E-01
   -0.49032123603847607707E-01
   -0.66875158536775891616E-01
   -0.15377550246438320691E+00
   -0.15073002260165271893E+00
   -0.64483755335094997130E-01
   -0.44608884257836475817E-01
   -0.23537081287506454553E-16
   -0.17195172011680586952E-16
    0.38369131356055435900E-01
    0.55740117772478295355E-01
    0.13046741974692210864E+00
    0.13353023024889040804E+00
    0.58158054062987199484E-01
    0.42859359296383771343E-01
   -0.42859359296383910121E-01
   -0.58158054062987254995E-01
   -0.13353023024889040804E+00
   -0.13046741974692213639E+00
   -0.55740117772478309233E-01
   -0.38369131356055415083E-01
   -0.14205315783447485746E-16
   -0.22868423757952913091E-16
    0.24925059392457896146E+00
    0.27415280529717250824E+00
    0.35695933736521812119E+00
    0.36470154305780416726E+00
    0.28585899923542379408E+00
    0.27557016806200523851E+00
    0.18360402554890267734E+00
    0.16078531634352966062E+00
    0.77344090918327570994E-01
    0.75726783520538618055E-01
    0.15391522396927576066E+00
    0.16626643464599080713E+00
    0.21731367831012590730E+00
    0.22004249412197593450E+00
   -0.11630178308356518835E+00
   -0.10897880533819993831E+00
   -0.53871460120910041880E-01
   -0.55491830181950037304E-01
   -0.11586126990439005180E+00
   -0.13367138530490724202E+00
   -0.20065831237366299478E+00
   -0.20590743303329539504E+00
   -0.26165994860335545225E+00
   -0.25391030273755144098E+00
   -0.19418580516805261649E+00
   -0.17430158434344031337E+00
   -0.15486687812295471534E+00
   -0.15759977859336560257E+00
    0.32123198304525403535E-01
    0.46982846126428071121E-01
    0.11016995933840106892E+00
    0.11323440066084049238E+00
    0.49402252730678615500E-01
    0.36616408746027409582E-01
   -0.36616408746027388765E-01
   -0.49402252730678594683E-01
   -0.11323440066084040911E+00
   -0.11016995933840104116E+00
   -0.46982846126428057243E-01
   -0.32123198304525452107E-01
    0.91523190638809224454E-17
    0.11092332192853402196E-16
    0.25876559997143035174E-01
    0.38224022077849757750E-01
    0.89868531406993343302E-01
    0.92933144971410960866E-01
    0.40643588929439547486E-01
    0.30370101524297143936E-01
   -0.30370101524297199447E-01
   -0.40643588929439589119E-01
   -0.92933144971411044133E-01
   -0.89868531406993426569E-01
   -0.38224022077849813261E-01
   -0.25876559997143118441E-01
   -0.35175761610787868947E-16
   -0.33153286164298761399E-16
    0.17430158434344023011E+00
    0.19418580516805256098E+00
    0.25391030273755144098E+00
    0.26165994860335550776E+00
    0.20590743303329542280E+00
    0.20065831237366293927E+00
    0.13367138530490715875E+00
    0.11586126990439003792E+00
    0.55491830181949995671E-01
    0.53871460120910000247E-01
    0.10897880533819986892E+00
    0.11630178308356506345E+00
    0.15486687812295468758E+00
    0.15759977859336560257E+00
    0.21178094986899906327E+00
    0.23417675673281584947E+00
    0.30544388807926348139E+00
    0.31319254838669130514E+00
    0.24589644512229721918E+00
    0.23813303262317891962E+00
    0.15865394639491492423E+00
    0.13833327103222481380E+00
    0.66422441632013121127E-01
    0.64802402822055932274E-01
    0.13145217454471908036E+00
    0.14128785268087115656E+00
    0.18609845456158544130E+00
    0.18883086915825048058E+00
    0.42267219390677002178E+00
    0.45260400565809499884E+00
    0.53195331539962575906E+00
    0.54438617995302529540E+00
    0.47362274185320246689E+00
    0.47087988439083977577E+00
    0.38514950440080442107E+00
    0.35729626741736414397E+00
    0.27730561439215151154E+00
    0.27100307880856694398E+00
    0.34111765834747770354E+00
    0.34593091206201959098E+00
    0.40342806401118147530E+00
    0.40889227263858318739E+00
    0.35396034673516457714E+00
    0.38138157956604562537E+00
    0.44918657255108002113E+00
    0.46162153482649098679E+00
    0.40240543341767892604E+00
    0.40218049605117217604E+00
    0.32894589763821102668E+00
    0.30359939541139774333E+00
    0.23514981345497840137E+00
    0.22884464976127233404E+00
    0.28741512465149410271E+00
    0.28971366350147570445E+00
    0.34096748721762326628E+00
    0.34643327930626544031E+00
    0.56485520962439028647E+00
    0.59981452216852637616E+00
    0.67570161429018749111E+00
    0.69282281192787376067E+00
    0.63014184151797603128E+00
    0.63494151379053043183E+00
    0.55545679567146810651E+00
    0.52257333109436265861E+00
    0.44604201453858022264E+00
    0.43505217011138519467E+00
    0.49708685113856165838E+00
    0.49436077962002267228E+00
    0.55830467399012861929E+00
    0.56650359898026703132E+00
   -0.14454320437689577306E+00
   -0.15731797302727978938E+00
   -0.14145798628509473338E+00
   -0.15244783070551148896E+00
   -0.18280445299366937517E+00
   -0.20563922043955507046E+00
   -0.23514479062001514276E+00
   -0.22029417404615844744E+00
   -0.23679838526265339915E+00
   -0.21967718778876668684E+00
   -0.18996685467148138882E+00
   -0.16505848619842883318E+00
   -0.18349640118402013589E+00
   -0.19169532618216308939E+00
   -0.12105410236450730999E+00
   -0.12629190866154271777E+00
   -0.10235018729971301354E+00
   -0.10865535100100663646E+00
   -0.14247617941835100108E+00
   -0.16028633650716153647E+00
   -0.19603965344061366483E+00
   -0.18872711656854335160E+00
   -0.21331342688832663490E+00
   -0.20087846461363531581E+00
   -0.16770326270487143083E+00
   -0.14781950414181127540E+00
   -0.15356672079208918968E+00
   -0.15903251288365413685E+00
   -0.64850495633458127287E-01
   -0.72595036706907034585E-01
   -0.60194386393821693038E-01
   -0.66496921974447537051E-01
   -0.88773645785856863943E-01
   -0.10406908798195595167E+00
   -0.12732780631838439001E+00
   -0.11750469053032823463E+00
   -0.13054668414406089827E+00
   -0.11811381975139910450E+00
   -0.96485954325058201353E-01
   -0.79120115596376078271E-01
   -0.91107727518120185106E-01
   -0.96571936148604278771E-01
   -0.41346053559137251054E-01
   -0.41558032972885239342E-01
   -0.21077559057715706398E-01
   -0.22697597875020500413E-01
   -0.48439129467830029097E-01
   -0.58712147268623088303E-01
   -0.88219050268095386413E-01
   -0.85931939336134355312E-01
   -0.10705611131823139504E+00
   -0.99307451029101101447E-01
   -0.74212250968217430280E-01
   -0.61866967539566886103E-01
   -0.61169130886218656129E-01
   -0.63901545482240931784E-01
   -0.66328614665507504289E-01
   -0.64030034118952042221E-01
   -0.32008170517848974490E-01
   -0.33628540581590572744E-01
   -0.70912498672360158025E-01
   -0.83698216861110452669E-01
   -0.12569841579304796841E+00
   -0.12592289089949859626E+00
   -0.15858969664282096534E+00
   -0.15084005078798329302E+00
   -0.11420126303603629625E+00
   -0.99341687777750917188E-01
   -0.92400221440415417073E-01
   -0.95133121908969733860E-01
    0.19629898568530198405E-01
    0.29465107087860698681E-01
    0.69566854360782484634E-01
    0.72631467928803858380E-01
    0.31884673950438729984E-01
    0.24123440091566847321E-01
   -0.24123440091566989568E-01
   -0.31884673950438847945E-01
   -0.72631467928803997158E-01
   -0.69566854360782609534E-01
   -0.29465107087860792356E-01
   -0.19629898568530312897E-01
   -0.53835849845457728276E-16
   -0.55012434813680069051E-16
    0.13383591345609228973E-01
    0.20706443297931042408E-01
    0.49265598685584138794E-01
    0.52330040017538020924E-01
    0.23125849901605981251E-01
    0.17876801781495012256E-01
   -0.17876801781495109400E-01
   -0.23125849901606085335E-01
   -0.52330040017538125008E-01
   -0.49265598685584249816E-01
   -0.20706443297931108327E-01
   -0.13383591345609298362E-01
   -0.39525741557956550368E-16
   -0.42092623743571041767E-16
    0.99341687777750875554E-01
    0.11420126303603624074E+00
    0.15084005078798329302E+00
    0.15858969664282088208E+00
    0.12592289089949851300E+00
    0.12569841579304777412E+00
    0.83698216861110327769E-01
    0.70912498672360060881E-01
    0.33628540581590454783E-01
    0.32008170517848884284E-01
    0.64030034118951958955E-01
    0.66328614665507434900E-01
    0.92400221440415347685E-01
    0.95133121908969581204E-01
   -0.16395974464207187238E-01
   -0.19105987700777097432E-01
   -0.10155909794562890600E-01
   -0.11773217186665328043E-01
   -0.25976080061708203134E-01
   -0.33733565326231652881E-01
   -0.50749406249413132886E-01
   -0.45955890843112308375E-01
   -0.55540662153768037557E-01
   -0.47798456635704422713E-01
   -0.34249696904927864893E-01
   -0.24429831918813361274E-01
   -0.29957505970637711423E-01
   -0.32686321781319221946E-01
    0.71406407976076580538E-02
    0.11950641968521578604E-01
    0.28969769102064005933E-01
    0.32032579593351963310E-01
    0.14368578245720915743E-01
    0.11630868725929697366E-01
   -0.11630868725929768490E-01
   -0.14368578245720967784E-01
   -0.32032579593352025760E-01
   -0.28969769102064033689E-01
   -0.11950641968521599420E-01
   -0.71406407976076858093E-02
   -0.21344666092845361511E-16
   -0.23927046283851562206E-16
    0.96787637558356739466E-03
    0.32335375763609475533E-02
    0.87244972239409225578E-02
    0.11769976902679954792E-01
    0.56249407514842699254E-02
    0.53911158487504459366E-02
   -0.53911158487504624165E-02
   -0.56249407514842794664E-02
   -0.11769976902679963465E-01
   -0.87244972239409173537E-02
   -0.32335375763609510227E-02
   -0.96787637558356771992E-03
   -0.26847511958198159102E-17
   -0.37927251323138315471E-17
    0.24429831918813361274E-01
    0.34249696904927844077E-01
    0.47798456635704415774E-01
    0.55540662153768009801E-01
    0.45955890843112280619E-01
    0.50749406249413063497E-01
    0.33733565326231611248E-01
    0.25976080061708171909E-01
    0.11773217186665298553E-01
    0.10155909794562871518E-01
    0.19105987700777093963E-01
    0.16395974464207180299E-01
    0.29957505970637704484E-01
    0.32686321781319208069E-01
    0.61866967539566851408E-01
    0.74212250968217319258E-01
    0.99307451029101101447E-01
    0.10705611131823129789E+00
    0.85931939336134299801E-01
    0.88219050268095275391E-01
    0.58712147268623039731E-01
    0.48439129467829980524E-01
    0.22697597875020417146E-01
    0.21077559057715626600E-01
    0.41558032972885183831E-01
    0.41346053559137202482E-01
    0.61169130886218565923E-01
    0.63901545482240848517E-01
    0.14781950414181124764E+00
    0.16770326270487140308E+00
    0.20087846461363531581E+00
    0.21331342688832663490E+00
    0.18872711656854329609E+00
    0.19603965344061358156E+00
    0.16028633650716142545E+00
    0.14247617941835097333E+00
    0.10865535100100660870E+00
    0.10235018729971291640E+00
    0.12629190866154260675E+00
    0.12105410236450726835E+00
    0.15356672079208913417E+00