# vtk DataFile Version 3.0
LAPLACIEN  2D
ASCII
DATASET UNSTRUCTURED_GRID
 POINTS         481  float
   6.2500000000000000E-002  0.87500000000000000        0.0000000000000000     
  0.12500000000000000       0.87500000000000000        0.0000000000000000     
  0.12500000000000000       0.93750000000000000        0.0000000000000000     
   3.7499999999999999E-002  0.91249999999999998        0.0000000000000000     
   8.1250000000000003E-002  0.91874999999999996        0.0000000000000000     
   8.7499999999999994E-002  0.96250000000000002        0.0000000000000000     
   4.3749999999999997E-002  0.95625000000000004        0.0000000000000000     
  0.18750000000000000       0.87500000000000000        0.0000000000000000     
  0.25000000000000000       0.87500000000000000        0.0000000000000000     
  0.25000000000000000       0.93750000000000000        0.0000000000000000     
  0.16250000000000001       0.91249999999999998        0.0000000000000000     
  0.20624999999999999       0.91874999999999996        0.0000000000000000     
  0.21249999999999999       0.96250000000000002        0.0000000000000000     
  0.16875000000000001       0.95625000000000004        0.0000000000000000     
   6.2500000000000000E-002  0.75000000000000000        0.0000000000000000     
  0.12500000000000000       0.75000000000000000        0.0000000000000000     
  0.12500000000000000       0.81250000000000000        0.0000000000000000     
   3.7499999999999999E-002  0.78749999999999998        0.0000000000000000     
   8.1250000000000003E-002  0.79374999999999996        0.0000000000000000     
   8.7499999999999994E-002  0.83750000000000002        0.0000000000000000     
   4.3749999999999997E-002  0.83125000000000004        0.0000000000000000     
  0.18750000000000000       0.75000000000000000        0.0000000000000000     
  0.25000000000000000       0.75000000000000000        0.0000000000000000     
  0.25000000000000000       0.81250000000000000        0.0000000000000000     
  0.16250000000000001       0.78749999999999998        0.0000000000000000     
  0.20624999999999999       0.79374999999999996        0.0000000000000000     
  0.21249999999999999       0.83750000000000002        0.0000000000000000     
  0.16875000000000001       0.83125000000000004        0.0000000000000000     
  0.31250000000000000       0.87500000000000000        0.0000000000000000     
  0.37500000000000000       0.87500000000000000        0.0000000000000000     
  0.37500000000000000       0.93750000000000000        0.0000000000000000     
  0.28749999999999998       0.91249999999999998        0.0000000000000000     
  0.33124999999999999       0.91874999999999996        0.0000000000000000     
  0.33750000000000002       0.96250000000000002        0.0000000000000000     
  0.29375000000000001       0.95625000000000004        0.0000000000000000     
  0.43750000000000000       0.87500000000000000        0.0000000000000000     
  0.50000000000000000       0.87500000000000000        0.0000000000000000     
  0.50000000000000000       0.93750000000000000        0.0000000000000000     
  0.41249999999999998       0.91249999999999998        0.0000000000000000     
  0.45624999999999999       0.91874999999999996        0.0000000000000000     
  0.46250000000000002       0.96250000000000002        0.0000000000000000     
  0.41875000000000001       0.95625000000000004        0.0000000000000000     
  0.31250000000000000       0.75000000000000000        0.0000000000000000     
  0.37500000000000000       0.75000000000000000        0.0000000000000000     
  0.37500000000000000       0.81250000000000000        0.0000000000000000     
  0.28749999999999998       0.78749999999999998        0.0000000000000000     
  0.33124999999999999       0.79374999999999996        0.0000000000000000     
  0.33750000000000002       0.83750000000000002        0.0000000000000000     
  0.29375000000000001       0.83125000000000004        0.0000000000000000     
  0.43750000000000000       0.75000000000000000        0.0000000000000000     
  0.50000000000000000       0.75000000000000000        0.0000000000000000     
  0.50000000000000000       0.81250000000000000        0.0000000000000000     
  0.41249999999999998       0.78749999999999998        0.0000000000000000     
  0.45624999999999999       0.79374999999999996        0.0000000000000000     
  0.46250000000000002       0.83750000000000002        0.0000000000000000     
  0.41875000000000001       0.83125000000000004        0.0000000000000000     
   6.2500000000000000E-002  0.62500000000000000        0.0000000000000000     
  0.12500000000000000       0.62500000000000000        0.0000000000000000     
  0.12500000000000000       0.68750000000000000        0.0000000000000000     
   3.7499999999999999E-002  0.66249999999999998        0.0000000000000000     
   8.1250000000000003E-002  0.66874999999999996        0.0000000000000000     
   8.7499999999999994E-002  0.71250000000000002        0.0000000000000000     
   4.3749999999999997E-002  0.70625000000000004        0.0000000000000000     
  0.18750000000000000       0.62500000000000000        0.0000000000000000     
  0.25000000000000000       0.62500000000000000        0.0000000000000000     
  0.25000000000000000       0.68750000000000000        0.0000000000000000     
  0.16250000000000001       0.66249999999999998        0.0000000000000000     
  0.20624999999999999       0.66874999999999996        0.0000000000000000     
  0.21249999999999999       0.71250000000000002        0.0000000000000000     
  0.16875000000000001       0.70625000000000004        0.0000000000000000     
   6.2500000000000000E-002  0.50000000000000000        0.0000000000000000     
  0.12500000000000000       0.50000000000000000        0.0000000000000000     
  0.12500000000000000       0.56250000000000000        0.0000000000000000     
   3.7499999999999999E-002  0.53749999999999998        0.0000000000000000     
   8.1250000000000003E-002  0.54374999999999996        0.0000000000000000     
   8.7499999999999994E-002  0.58750000000000002        0.0000000000000000     
   4.3749999999999997E-002  0.58125000000000004        0.0000000000000000     
  0.18750000000000000       0.50000000000000000        0.0000000000000000     
  0.25000000000000000       0.50000000000000000        0.0000000000000000     
  0.25000000000000000       0.56250000000000000        0.0000000000000000     
  0.16250000000000001       0.53749999999999998        0.0000000000000000     
  0.20624999999999999       0.54374999999999996        0.0000000000000000     
  0.21249999999999999       0.58750000000000002        0.0000000000000000     
  0.16875000000000001       0.58125000000000004        0.0000000000000000     
  0.31250000000000000       0.62500000000000000        0.0000000000000000     
  0.37500000000000000       0.62500000000000000        0.0000000000000000     
  0.37500000000000000       0.68750000000000000        0.0000000000000000     
  0.28749999999999998       0.66249999999999998        0.0000000000000000     
  0.33124999999999999       0.66874999999999996        0.0000000000000000     
  0.33750000000000002       0.71250000000000002        0.0000000000000000     
  0.29375000000000001       0.70625000000000004        0.0000000000000000     
  0.43750000000000000       0.62500000000000000        0.0000000000000000     
  0.50000000000000000       0.62500000000000000        0.0000000000000000     
  0.50000000000000000       0.68750000000000000        0.0000000000000000     
  0.41249999999999998       0.66249999999999998        0.0000000000000000     
  0.45624999999999999       0.66874999999999996        0.0000000000000000     
  0.46250000000000002       0.71250000000000002        0.0000000000000000     
  0.41875000000000001       0.70625000000000004        0.0000000000000000     
  0.31250000000000000       0.50000000000000000        0.0000000000000000     
  0.37500000000000000       0.50000000000000000        0.0000000000000000     
  0.37500000000000000       0.56250000000000000        0.0000000000000000     
  0.28749999999999998       0.53749999999999998        0.0000000000000000     
  0.33124999999999999       0.54374999999999996        0.0000000000000000     
  0.33750000000000002       0.58750000000000002        0.0000000000000000     
  0.29375000000000001       0.58125000000000004        0.0000000000000000     
  0.43750000000000000       0.50000000000000000        0.0000000000000000     
  0.50000000000000000       0.50000000000000000        0.0000000000000000     
  0.50000000000000000       0.56250000000000000        0.0000000000000000     
  0.41249999999999998       0.53749999999999998        0.0000000000000000     
  0.45624999999999999       0.54374999999999996        0.0000000000000000     
  0.46250000000000002       0.58750000000000002        0.0000000000000000     
  0.41875000000000001       0.58125000000000004        0.0000000000000000     
  0.56250000000000000       0.87500000000000000        0.0000000000000000     
  0.62500000000000000       0.87500000000000000        0.0000000000000000     
  0.62500000000000000       0.93750000000000000        0.0000000000000000     
  0.53749999999999998       0.91249999999999998        0.0000000000000000     
  0.58125000000000004       0.91874999999999996        0.0000000000000000     
  0.58750000000000002       0.96250000000000002        0.0000000000000000     
  0.54374999999999996       0.95625000000000004        0.0000000000000000     
  0.68750000000000000       0.87500000000000000        0.0000000000000000     
  0.75000000000000000       0.87500000000000000        0.0000000000000000     
  0.75000000000000000       0.93750000000000000        0.0000000000000000     
  0.66249999999999998       0.91249999999999998        0.0000000000000000     
  0.70625000000000004       0.91874999999999996        0.0000000000000000     
  0.71250000000000002       0.96250000000000002        0.0000000000000000     
[...]
 CELL_DATA         896
 SCALARS Uexacte float
 LOOKUP_TABLE default
   -0.77562500000000000888E+00
   -0.80867594421517008385E+00
   -0.77886718749999994671E+00
   -0.80863281249999996447E+00
   -0.87121537462722109524E+00
   -0.92437499999999994671E+00
   -0.97875000000000000888E+00
   -0.94393407996517020297E+00
   -0.97417968750000005773E+00
   -0.93832031250000003109E+00
   -0.87617460062722118952E+00
   -0.82125000000000003553E+00
   -0.86542968749999993339E+00
   -0.88457031249999995559E+00
   -0.75218750000000000888E+00
   -0.77769768458364829655E+00
   -0.73980468749999994671E+00
   -0.76488281250000000888E+00
   -0.83093005041635159547E+00
   -0.87906249999999996891E+00
   -0.93968750000000000888E+00
   -0.91241233958364842405E+00
   -0.95074218750000005773E+00
   -0.91957031249999998668E+00
   -0.85395992541635168394E+00
   -0.80406250000000001332E+00
   -0.83554687500000002220E+00
   -0.85195312499999997780E+00
   -0.57093749999999998668E+00
   -0.59896126921517012232E+00
   -0.57261718749999990230E+00
   -0.59769531249999996447E+00
   -0.65219363462722113045E+00
   -0.69781249999999994671E+00
   -0.74593750000000003109E+00
   -0.71614875496517016451E+00
   -0.74292968750000010214E+00
   -0.71175781250000003109E+00
   -0.65769634062722115431E+00
   -0.61031250000000003553E+00
   -0.64804687499999991118E+00
   -0.66445312499999997780E+00
   -0.54749999999999998668E+00
   -0.56798300958364833502E+00
   -0.53355468749999990230E+00
   -0.55394531250000000888E+00
   -0.61190831041635163068E+00
   -0.65249999999999996891E+00
   -0.70687500000000003109E+00
   -0.68462701458364838558E+00
   -0.71949218750000010214E+00
   -0.69300781249999998668E+00
   -0.63548166541635153770E+00
   -0.59312500000000001332E+00
   -0.61816406250000000000E+00
   -0.63183593750000000000E+00
   -0.69750000000000000888E+00
   -0.71546942458364837236E+00
   -0.66949218749999994671E+00
   -0.68988281250000005329E+00
   -0.75939472541635155700E+00
   -0.80249999999999999112E+00
   -0.86937500000000000888E+00
   -0.84964059958364845926E+00
   -0.89605468750000005773E+00
   -0.86957031250000005329E+00
   -0.80049525041635161138E+00
   -0.75562499999999999112E+00
   -0.77441406250000000000E+00
   -0.78808593750000000000E+00
   -0.61156250000000000888E+00
   -0.62199116458364833715E+00
   -0.56792968749999994671E+00
   -0.58363281249999998668E+00
   -0.65660940041635151854E+00
   -0.69468750000000001332E+00
   -0.76781250000000000888E+00
   -0.75561885958364838345E+00
   -0.81011718750000005773E+00
   -0.78832031250000000888E+00
   -0.71578057541635164984E+00
   -0.67593750000000007994E+00
   -0.68203124999999997780E+00
   -0.69296874999999991118E+00
   -0.49281249999999998668E+00
   -0.50575474958364841083E+00
   -0.46324218749999990230E+00
   -0.47894531249999999778E+00
   -0.54037298541635159221E+00
   -0.57593749999999999112E+00
   -0.63656250000000003109E+00
   -0.62185527458364842079E+00
   -0.66480468750000010214E+00
   -0.64300781250000005329E+00
   -0.58201699041635157617E+00
   -0.54468749999999999112E+00
   -0.55703124999999997780E+00
   -0.56796875000000002220E+00
   -0.40687499999999998668E+00
   -0.41227648958364837561E+00
   -0.36167968749999990230E+00
   -0.37269531249999998668E+00
   -0.43758766041635155375E+00
   -0.46812500000000001332E+00
   -0.53500000000000003109E+00
   -0.52783353458364845601E+00
   -0.57886718750000010214E+00
   -0.56175781250000000888E+00
   -0.49730231541635161463E+00
   -0.46500000000000002442E+00
   -0.46464843749999995559E+00
   -0.47285156249999998890E+00
   -0.39749999999999996447E+00
   -0.42049659421517010527E+00
   -0.39761718749999996891E+00
   -0.41800781250000001998E+00
   -0.46442189462722116566E+00
   -0.50249999999999994671E+00
   -0.54437500000000005329E+00
   -0.51961342996517023707E+00
   -0.54292968750000003553E+00
   -0.51644531250000003109E+00
   -0.47046808062722117461E+00
   -0.43062499999999998002E+00
   -0.46191406249999994449E+00
   -0.47558593750000005551E+00
   -0.37406249999999996447E+00
   -0.38951833458364837348E+00
   -0.35855468749999996891E+00
   -0.37425781250000000888E+00
   -0.42413657041635155487E+00
   -0.45718750000000002442E+00
   -0.50531250000000005329E+00
   -0.48809168958364851365E+00
   -0.51949218750000003553E+00
   -0.49769531249999998668E+00
   -0.44825340541635161351E+00
   -0.41343750000000001332E+00
   -0.43203124999999992228E+00
   -0.44296875000000002220E+00
   -0.25531249999999999778E+00
   -0.27328191921517008822E+00
   -0.25386718749999998002E+00
   -0.26957031250000001998E+00
   -0.30790015462722114536E+00
   -0.33843750000000000222E+00
   -0.37406250000000001998E+00
   -0.35432810496517019860E+00
   -0.37417968750000007994E+00
   -0.35238281249999997558E+00
   -0.31448982062722119490E+00
   -0.28218749999999998002E+00
   -0.30703124999999997780E+00
   -0.31796875000000002220E+00
   -0.23187499999999999778E+00
   -0.24230365958364835643E+00
   -0.21480468749999998002E+00
   -0.22582031250000000888E+00
   -0.26761483041635153457E+00
   -0.29312500000000002442E+00
   -0.33500000000000001998E+00
   -0.32280636458364847519E+00
   -0.35074218750000007994E+00
   -0.33363281249999998668E+00
   -0.29227514541635163381E+00
   -0.26500000000000001332E+00
   -0.27714843749999995559E+00
   -0.28535156249999998890E+00
   -0.31937499999999996447E+00
   -0.32729007458364839378E+00
   -0.28824218749999996891E+00
   -0.29925781249999999778E+00
   -0.35260124541635157192E+00
   -0.38062499999999999112E+00
   -0.43500000000000005329E+00
   -0.42531994958364849335E+00
   -0.46480468750000003553E+00
   -0.44769531249999999778E+00
   -0.39478873041635159646E+00
   -0.36499999999999999112E+00
   -0.37089843749999995559E+00
   -0.37910156250000004441E+00
   -0.23343749999999996447E+00
   -0.23381181458364838632E+00
   -0.18667968749999996891E+00
   -0.19300781250000001443E+00
   -0.24981592041635156121E+00
   -0.27281250000000001332E+00
   -0.33343750000000005329E+00
   -0.33129820958364847305E+00
   -0.37886718750000003553E+00
   -0.36644531250000000888E+00
   -0.31007405541635157942E+00
   -0.28531250000000002442E+00
   -0.27851562499999993339E+00
   -0.28398437500000001110E+00
   -0.17718749999999999778E+00
   -0.18007539958364837673E+00
   -0.14449218749999998002E+00
   -0.15082031249999999778E+00
   -0.19607950541635155162E+00
   -0.21656249999999999112E+00
   -0.26468750000000001998E+00
   -0.26003462458364845489E+00
   -0.29605468750000007994E+00
   -0.28363281249999999778E+00
   -0.23881047041635161676E+00
   -0.21656249999999999112E+00
   -0.21601562499999998890E+00
   -0.22148437499999998335E+00
   -0.91249999999999997780E-01
   -0.86597139583648369277E-01
   -0.42929687499999980016E-01
   -0.44570312500000014433E-01
   -0.93294180416351540908E-01
   -0.10874999999999998557E+00
   -0.16312500000000001998E+00
   -0.16601288458364843459E+00
   -0.21011718750000007994E+00
   -0.20238281249999998113E+00
   -0.15409579541635162747E+00
   -0.13687500000000002442E+00
   -0.12363281249999999445E+00
   -0.12636718749999997780E+00
   -0.49437500000000000888E+00
   -0.49726290458364830194E+00
   -0.43511718749999994671E+00
   -0.44613281249999992006E+00
   -0.52257407541635148007E+00
   -0.55562500000000003553E+00
   -0.63500000000000000888E+00
   -0.63034711958364852968E+00
   -0.69292968750000005773E+00
   -0.67582031249999996447E+00
   -0.59981590041635168831E+00
   -0.56499999999999994671E+00
   -0.55839843749999995559E+00
   -0.56660156250000004441E+00
   -0.34593750000000000888E+00
   -0.34128464458364832224E+00
   -0.27105468749999994671E+00
   -0.27738281249999996447E+00
   -0.35728875041635144161E+00
   -0.38531249999999994671E+00
   -0.47093750000000000888E+00
   -0.47382537958364850939E+00
   -0.54449218750000005773E+00
   -0.53207031250000003109E+00
   -0.45260122541635167126E+00
   -0.42281250000000003553E+00
   -0.40351562500000004441E+00
   -0.40898437499999995559E+00
   -0.28968749999999998668E+00
   -0.28754822958364834040E+00
   -0.22886718749999990230E+00
   -0.23519531249999992006E+00
   -0.30355233541635151528E+00
   -0.32906249999999998002E+00
   -0.40218750000000003109E+00
   -0.40256179458364849122E+00
   -0.46167968750000010214E+00
   -0.44925781250000001998E+00
   -0.38133764041635165309E+00
   -0.35406250000000000222E+00
   -0.34101562499999998890E+00
   -0.34648437500000001110E+00
   -0.14124999999999998668E+00
   -0.13156996958364836070E+00
   -0.64804687499999902300E-01
   -0.66445312499999964473E-01
   -0.13826701041635147682E+00
   -0.15874999999999994671E+00
   -0.23812500000000003109E+00
   -0.24604005458364847092E+00
   -0.31324218750000010214E+00
   -0.30550781250000003109E+00
   -0.23412296541635163605E+00
   -0.21187500000000003553E+00
   -0.18613281250000002220E+00
   -0.18886718749999997780E+00
   -0.16625000000000000888E+00
   -0.15405638458364834253E+00
   -0.75742187499999946709E-01
   -0.77382812499999897859E-01
   -0.16075342541635151417E+00
   -0.18374999999999996891E+00
   -0.27562500000000000888E+00
   -0.28605363958364848909E+00
   -0.36480468750000005773E+00
   -0.35707031250000009770E+00
   -0.27413655041635165421E+00
   -0.24937500000000001332E+00
   -0.21738281250000002220E+00
   -0.22011718749999997780E+00
    0.44687499999999991118E-01
    0.64421875416351692678E-01
    0.15082031250000005329E+00
    0.15386718750000005773E+00
    0.67031899583648524299E-01
    0.49062500000000008882E-01
   -0.49062500000000008882E-01
   -0.67031899583648524299E-01
   -0.15386718750000005773E+00
   -0.15082031250000005329E+00
   -0.64421875416351692678E-01
   -0.44687499999999991118E-01
    0.00000000000000000000E+00
    0.00000000000000000000E+00
    0.38437500000000013323E-01
    0.55658290416351619001E-01
    0.13050781250000009770E+00
    0.13355468750000010214E+00
    0.58268314583648450622E-01
    0.42812500000000031086E-01
   -0.42812500000000031086E-01
   -0.58268314583648450622E-01
   -0.13355468750000010214E+00
   -0.13050781250000009770E+00
   -0.55658290416351619001E-01
   -0.38437500000000013323E-01
    0.00000000000000000000E+00
    0.00000000000000000000E+00
    0.24937500000000001332E+00
    0.27413655041635165421E+00
    0.35707031250000009770E+00
    0.36480468750000005773E+00
    0.28605363958364848909E+00
    0.27562500000000000888E+00
    0.18374999999999996891E+00
    0.16075342541635151417E+00
    0.77382812499999897859E-01
    0.75742187499999946709E-01
    0.15405638458364834253E+00
    0.16625000000000000888E+00
    0.21738281250000002220E+00
    0.22011718749999997780E+00
   -0.11624999999999996447E+00
   -0.10908355458364832336E+00
   -0.53867187499999968914E-01
   -0.55507812499999920064E-01
   -0.11578059541635149499E+00
   -0.13374999999999998002E+00
   -0.20062500000000005329E+00
   -0.20602646958364856378E+00
   -0.26167968750000003553E+00
   -0.25394531250000001998E+00
   -0.19410938041635167339E+00
   -0.17437500000000000222E+00
   -0.15488281249999996669E+00
   -0.15761718750000003331E+00
    0.32187500000000035527E-01
    0.46894705416351656346E-01
    0.11019531250000003109E+00
    0.11324218750000003553E+00
    0.49504729583648543478E-01
    0.36562500000000053291E-01
   -0.36562500000000053291E-01
   -0.49504729583648543478E-01
   -0.11324218750000003553E+00
   -0.11019531250000003109E+00
   -0.46894705416351656346E-01
   -0.32187500000000035527E-01
    0.00000000000000000000E+00
    0.00000000000000000000E+00
    0.25937500000000002220E-01
    0.38131120416351693692E-01
    0.89882812500000019984E-01
    0.92929687500000079936E-01
    0.40741144583648525312E-01
    0.30312500000000019984E-01
   -0.30312500000000019984E-01
   -0.40741144583648525312E-01
   -0.92929687500000079936E-01
   -0.89882812500000019984E-01
   -0.38131120416351693692E-01
   -0.25937500000000002220E-01
    0.00000000000000000000E+00
    0.00000000000000000000E+00
    0.17437500000000000222E+00
    0.19410938041635167339E+00
    0.25394531250000001998E+00
    0.26167968750000003553E+00
    0.20602646958364856378E+00
    0.20062500000000005329E+00
    0.13374999999999998002E+00
    0.11578059541635149499E+00
    0.55507812499999920064E-01
    0.53867187499999968914E-01
    0.10908355458364832336E+00
    0.11624999999999996447E+00
    0.15488281249999996669E+00
    0.15761718750000003331E+00
    0.21187500000000003553E+00
    0.23412296541635163605E+00
    0.30550781250000003109E+00
    0.31324218750000010214E+00
    0.24604005458364847092E+00
    0.23812500000000003109E+00
    0.15874999999999994671E+00
    0.13826701041635147682E+00
    0.66445312499999964473E-01
    0.64804687499999902300E-01
    0.13156996958364836070E+00
    0.14124999999999998668E+00
    0.18613281250000002220E+00
    0.18886718749999997780E+00
    0.42281250000000003553E+00
    0.45260122541635167126E+00
    0.53207031250000003109E+00
    0.54449218750000005773E+00
    0.47382537958364850939E+00
    0.47093750000000000888E+00
    0.38531249999999994671E+00
    0.35728875041635144161E+00
    0.27738281249999996447E+00
    0.27105468749999994671E+00
    0.34128464458364832224E+00
    0.34593750000000000888E+00
    0.40351562500000004441E+00
    0.40898437499999995559E+00
    0.35406250000000000222E+00
    0.38133764041635165309E+00
    0.44925781250000001998E+00
    0.46167968750000010214E+00
    0.40256179458364849122E+00
    0.40218750000000003109E+00
    0.32906249999999998002E+00
    0.30355233541635151528E+00
    0.23519531249999992006E+00
    0.22886718749999990230E+00
    0.28754822958364834040E+00
    0.28968749999999998668E+00
    0.34101562499999998890E+00
    0.34648437500000001110E+00
    0.56499999999999994671E+00
    0.59981590041635168831E+00
    0.67582031249999996447E+00
    0.69292968750000005773E+00
    0.63034711958364852968E+00
    0.63500000000000000888E+00
    0.55562500000000003553E+00
    0.52257407541635148007E+00
    0.44613281249999992006E+00
    0.43511718749999994671E+00
    0.49726290458364830194E+00
    0.49437500000000000888E+00
    0.55839843749999995559E+00
    0.56660156250000004441E+00
   -0.14437499999999997558E+00
   -0.15731724421517015444E+00
   -0.14136718750000001887E+00
   -0.15238281249999999223E+00
   -0.18262841462722120833E+00
   -0.20562500000000000222E+00
   -0.23500000000000001443E+00
   -0.22029277996517016014E+00
   -0.23667968749999998557E+00
   -0.21957031250000000333E+00
   -0.18976156062722115969E+00
   -0.16500000000000000777E+00
   -0.18339843749999998335E+00
   -0.19160156250000001665E+00
   -0.12093749999999997558E+00
   -0.12633898458364839490E+00
   -0.10230468750000001887E+00
   -0.10863281250000000888E+00
   -0.14234309041635162529E+00
   -0.16031249999999999667E+00
   -0.19593750000000001443E+00
   -0.18877103958364840897E+00
   -0.21324218749999998557E+00
   -0.20082031249999998668E+00
   -0.16754688541635157084E+00
   -0.14781250000000001332E+00
   -0.15351562499999998890E+00
   -0.15898437500000001110E+00
   -0.64687499999999995004E-01
   -0.72602569215170151273E-01
   -0.60117187500000002220E-01
   -0.66445312499999992228E-01
   -0.88606674627221201912E-01
   -0.10406250000000000222E+00
   -0.12718750000000000888E+00
   -0.11750745496517014943E+00
   -0.13042968750000000222E+00
   -0.11800781250000000333E+00
   -0.96283300627221166113E-01
   -0.79062499999999993894E-01
   -0.91015624999999988898E-01
   -0.96484375000000011102E-01
   -0.41249999999999995004E-01
   -0.41624309583648405608E-01
   -0.21054687500000002220E-01
   -0.22695312500000001943E-01
   -0.48321350416351618873E-01
   -0.58750000000000003608E-01
   -0.88125000000000008882E-01
   -0.85985714583648398257E-01
   -0.10699218750000000222E+00
   -0.99257812500000000555E-01
   -0.74068625416351577262E-01
   -0.61874999999999999445E-01
   -0.61132812499999987510E-01
   -0.63867187500000019429E-01
   -0.66249999999999975575E-01
   -0.64110724583648429076E-01
   -0.31992187500000018874E-01
   -0.33632812499999997780E-01
   -0.70807765416351642340E-01
   -0.83749999999999991118E-01
   -0.12562500000000001443E+00
   -0.12599929958364838867E+00
   -0.15855468749999998557E+00
   -0.15082031249999999778E+00
   -0.11408221041635156767E+00
   -0.99375000000000004996E-01
   -0.92382812499999994449E-01
   -0.95117187500000005551E-01
    0.19687500000000024425E-01
    0.29367535416351564503E-01
    0.69570312499999981126E-01
    0.72617187499999985567E-01
    0.31977559583648368369E-01
    0.24062500000000014433E-01
   -0.24062500000000014433E-01
   -0.31977559583648368369E-01
   -0.72617187499999985567E-01
   -0.69570312499999981126E-01
   -0.29367535416351564503E-01
   -0.19687500000000024425E-01
    0.00000000000000000000E+00
    0.00000000000000000000E+00
    0.13437500000000004996E-01
    0.20603950416351574093E-01
    0.49257812499999997780E-01
    0.52304687500000002220E-01
    0.23213974583648377958E-01
    0.17812500000000008882E-01
   -0.17812500000000008882E-01
   -0.23213974583648377958E-01
   -0.52304687500000002220E-01
   -0.49257812499999997780E-01
   -0.20603950416351574093E-01
   -0.13437500000000004996E-01
    0.00000000000000000000E+00
    0.00000000000000000000E+00
    0.99375000000000004996E-01
    0.11408221041635156767E+00
    0.15082031249999999778E+00
    0.15855468749999998557E+00
    0.12599929958364838867E+00
    0.12562500000000001443E+00
    0.83749999999999991118E-01
    0.70807765416351642340E-01
    0.33632812499999997780E-01
    0.31992187500000018874E-01
    0.64110724583648429076E-01
    0.66249999999999975575E-01
    0.92382812499999994449E-01
    0.95117187500000005551E-01
   -0.16250000000000000555E-01
   -0.19137894215170155043E-01
   -0.10117187500000002914E-01
   -0.11757812499999999167E-01
   -0.25834934627221181613E-01
   -0.33750000000000002220E-01
   -0.50624999999999996392E-01
   -0.45972129965170145660E-01
   -0.55429687499999998057E-01
   -0.47695312500000003331E-01
   -0.34055040627221186411E-01
   -0.24375000000000000833E-01
   -0.29882812499999997918E-01
   -0.32617187499999998612E-01
    0.71874999999999994449E-02
    0.11840365416351597561E-01
    0.28945312499999997086E-01
    0.31992187499999998057E-01
    0.14450389583648394487E-01
    0.11562499999999996392E-01
   -0.11562499999999996392E-01
   -0.14450389583648394487E-01
   -0.31992187499999998057E-01
   -0.28945312499999997086E-01
   -0.11840365416351597561E-01
   -0.71874999999999994449E-02
    0.00000000000000000000E+00
    0.00000000000000000000E+00
    0.93749999999999996531E-03
    0.30767809956994329398E-02
    0.86328124999999998612E-02
    0.11679687500000000833E-01
    0.56868057543005678250E-02
    0.53124999999999995143E-02
   -0.53124999999999995143E-02
   -0.56868057543005678250E-02
   -0.11679687500000000833E-01
   -0.86328124999999998612E-02
   -0.30767809956994329398E-02
   -0.93749999999999996531E-03
    0.00000000000000000000E+00
    0.00000000000000000000E+00
    0.24375000000000000833E-01
    0.34055040627221186411E-01
    0.47695312500000003331E-01
    0.55429687499999998057E-01
    0.45972129965170145660E-01
    0.50624999999999996392E-01
    0.33750000000000002220E-01
    0.25834934627221181613E-01
    0.11757812499999999167E-01
    0.10117187500000002914E-01
    0.19137894215170155043E-01
    0.16250000000000000555E-01
    0.29882812499999997918E-01
    0.32617187499999998612E-01
    0.61874999999999999445E-01
    0.74068625416351577262E-01
    0.99257812500000000555E-01
    0.10699218750000000222E+00
    0.85985714583648398257E-01
    0.88125000000000008882E-01
    0.58750000000000003608E-01
    0.48321350416351618873E-01
    0.22695312500000001943E-01
    0.21054687500000002220E-01
    0.41624309583648405608E-01
    0.41249999999999995004E-01
    0.61132812499999987510E-01
    0.63867187500000019429E-01
    0.14781250000000001332E+00
    0.16754688541635157084E+00
    0.20082031249999998668E+00
    0.21324218749999998557E+00
    0.18877103958364840897E+00
    0.19593750000000001443E+00
    0.16031249999999999667E+00
    0.14234309041635162529E+00
    0.10863281250000000888E+00
    0.10230468750000001887E+00
    0.12633898458364839490E+00
    0.12093749999999997558E+00